LAMMPS (29 Sep 2021 - Update 2)
Total wall time: 0:00:08
